<?xml version="1.0" encoding="UTF-8"?>

<!-- generated on mar. 10 juil. 2018 15:50:41 CEST by SUMO gui Version 0.32.0
<?xml version="1.0" encoding="UTF-8"?>

<configuration xmlns:xsi="http://www.w3.org/2001/XMLSchema-instance" xsi:noNamespaceSchemaLocation="http://sumo.dlr.de/xsd/sumoConfiguration.xsd">

    <input>
        <net-file value="/home/mario/catkin_ws/src/hybrid_simulation/sumo_files/network.net.xml"/>
        <route-files value="/home/mario/catkin_ws/src/hybrid_simulation/sumo_files/network_traci.rou.xml"/>
        <additional-files value="/home/mario/catkin_ws/src/hybrid_simulation/sumo_files/network.det.xml"/>
    </input>

    <time>
        <begin value="0"/>
        <step-length value="0.05"/>
    </time>

    <processing>
        <collision.action value="none"/>
        <time-to-teleport value="-1"/>
        <lanechange.duration value="1.5"/>
    </processing>

    <traci_server>
        <remote-port value="43374"/>
    </traci_server>

    <gui_only>
        <tracker-interval value="0.05"/>
    </gui_only>

</configuration>
-->

<detector xmlns:xsi="http://www.w3.org/2001/XMLSchema-instance" xsi:noNamespaceSchemaLocation="http://sumo.dlr.de/xsd/det_e1_file.xsd">
    <interval begin="0.00" end="30.00" id="det0" nVehContrib="1" flow="120.00" occupancy="29.69" speed="4.55" length="5.00" nVehEntered="2"/>
    <interval begin="30.00" end="60.00" id="det0" nVehContrib="0" flow="0.00" occupancy="100.00" speed="-1.00" length="-1.00" nVehEntered="0"/>
    <interval begin="60.00" end="89.00" id="det0" nVehContrib="0" flow="0.00" occupancy="100.00" speed="-1.00" length="-1.00" nVehEntered="0"/>
</detector>
